
#(C) 2019 by FIZ Karlsruhe - Leibniz Institute for Information Infrastructure.  All rights reserved.
data_84182-ICSD
_database_code_ICSD 84182
_audit_creation_date 1999-01-19
_chemical_name_systematic 'Tungsten(IV) selenide - 2H'
_chemical_formula_structural 'W Se2'
_chemical_formula_sum 'Se2 W1'
_chemical_name_structure_type MoS2(4H)
_exptl_crystal_density_diffrn 9.35
_publ_section_title

;
Characteristics of the crystal structure, electrophysical properties, and
model of the valence band spectrum of laminar compounds of molybdenum
disulfide type
;
loop_
_citation_id
_citation_journal_full
_citation_year
_citation_journal_volume
_citation_page_first
_citation_page_last
_citation_journal_id_ASTM
primary 'Izvestiya Akademii Nauk SSSR, Neorganicheskie Materialy' 1983 19 1060
1065 IVNMAW
loop_
_publ_author_name
'Kalikhman, V.L.'
_cell_length_a 3.286
_cell_length_b 3.286
_cell_length_c 12.98
_cell_angle_alpha 90.
_cell_angle_beta 90.
_cell_angle_gamma 120.
_cell_volume 121.38
_cell_formula_units_Z 2
_symmetry_space_group_name_H-M 'P 63/m m c'
_symmetry_Int_Tables_number 194
_refine_ls_R_factor_all 0.17
loop_
_symmetry_equiv_pos_site_id
_symmetry_equiv_pos_as_xyz
1 'x, x-y, -z+1/2'
2 '-x+y, y, -z+1/2'
3 '-y, -x, -z+1/2'
4 '-x+y, -x, -z+1/2'
5 '-y, x-y, -z+1/2'
6 'x, y, -z+1/2'
7 '-x, -x+y, z+1/2'
8 'x-y, -y, z+1/2'
9 'y, x, z+1/2'
10 'x-y, x, z+1/2'
11 'y, -x+y, z+1/2'
12 '-x, -y, z+1/2'
13 '-x, -x+y, -z'
14 'x-y, -y, -z'
15 'y, x, -z'
16 'x-y, x, -z'
17 'y, -x+y, -z'
18 '-x, -y, -z'
19 'x, x-y, z'
20 '-x+y, y, z'
21 '-y, -x, z'
22 '-x+y, -x, z'
23 '-y, x-y, z'
24 'x, y, z'
loop_
_atom_type_symbol
_atom_type_oxidation_number
W4+ 4
Se2- -2
loop_
_atom_site_label
_atom_site_type_symbol
_atom_site_symmetry_multiplicity
_atom_site_Wyckoff_symbol
_atom_site_fract_x
_atom_site_fract_y
_atom_site_fract_z
_atom_site_B_iso_or_equiv
_atom_site_occupancy
_atom_site_attached_hydrogens
W1 W4+ 2 d 0.6667 0.3333 0.25 . 1. 0
Se1 Se2- 4 f 0.3333 0.6667 0.120(1) . 1. 0
#End of TTdata_84182-ICSD